REMARK SMILES Cn1c(=O)c2c(ncn2C)n(C)c1=O
REMARK SMILES IDX 10 1 9 2 8 3 7 4 6 5 5 6 3 7 4 8 2 9 13 10 14 11 11 12 12 13
REMARK SMILES IDX 1 14
REMARK H PARENT
REMARK Flexibility Score: inf
ROOT
ATOM      1  C   UNL     1      -3.249  -1.131   0.019  1.00  0.00     0.151 C 
ATOM      2  N   UNL     1      -2.265  -0.079   0.012  1.00  0.00    -0.328 N 
ATOM      3  C   UNL     1      -2.519   1.267   0.004  1.00  0.00     0.202 A 
ATOM      4  N   UNL     1      -1.405   1.972   0.001  1.00  0.00    -0.218 NA
ATOM      5  C   UNL     1      -0.413   1.038   0.007  1.00  0.00     0.167 A 
ATOM      6  C   UNL     1      -0.908  -0.230   0.013  1.00  0.00     0.152 A 
ATOM      7  C   UNL     1      -0.084  -1.388   0.020  1.00  0.00     0.282 A 
ATOM      8  O   UNL     1      -0.540  -2.527   0.028  1.00  0.00    -0.267 OA
ATOM      9  N   UNL     1       1.280  -1.081   0.017  1.00  0.00    -0.261 N 
ATOM     10  C   UNL     1       1.831   0.218   0.012  1.00  0.00     0.332 A 
ATOM     11  O   UNL     1       3.054   0.388   0.011  1.00  0.00    -0.247 OA
ATOM     12  N   UNL     1       0.938   1.290   0.007  1.00  0.00    -0.279 N 
ATOM     13  C   UNL     1       1.423   2.658   0.001  1.00  0.00     0.157 C 
ATOM     14  C   UNL     1       2.228  -2.178   0.022  1.00  0.00     0.159 C 
ENDROOT
TORSDOF 0
